optimization of molecular structure                                     
Freq      RMP2-FC                                                     6-311G(d,p)
Number of atoms                            I                3
Charge                                     I                0
Multiplicity                               I                1
Number of electrons                        I               10
Number of alpha electrons                  I                5
Number of beta electrons                   I                5
Number of basis functions                  I               30
Number of independant functions            I               30
Number of contracted shells                I               13
Highest angular momentum                   I                2
Largest degree of contraction              I                6
Number of primitive shells                 I               24
Viriral Ratio                              R      1.999819087828266E+00
SCF Energy                                 R     -7.604626330487979E+01
MP2 Energy                                 R     -7.626397185814196E+01
Total Energy                               R     -7.626397185814196E+01
Post-SCF wavefunction norm                 R      1.450605089336255E+00
RMS Force                                  R      7.692348601330123E-05
RMS Density                                R      1.307919431020292E-10
Atomic numbers                             I   N=           3
           1           8           1
Nuclear charges                            R   N=           3
  1.00000000E+00  8.00000000E+00  1.00000000E+00
Current cartesian coordinates              R   N=           9
  9.72979808E-31  1.41106885E+00 -9.06596624E-01  1.03277993E-32  8.38223805E-18
  2.26649156E-01 -1.72800387E-16 -1.41106885E+00 -9.06596624E-01
Atom types                                 I   N=           3
           0           0           0
Force Field                                I                0
MM charges                                 R   N=           3
  0.00000000E+00  0.00000000E+00  0.00000000E+00
ONIOM Charges                              I   N=           4
           0           0           0           0
ONIOM Multiplicities                       I   N=           4
           1           0           0           0
Atom Layers                                I   N=           3
           0           0           0
Atom Modifiers                             I   N=           3
           0           0           0
Atom types                                 I   N=           3
           0           0           0
Link Atoms                                 I   N=           3
           0           0           0
Atom Modified MM Charges                   R   N=           3
  0.00000000E+00  0.00000000E+00  0.00000000E+00
Link Distances                             R   N=           3
  0.00000000E+00  0.00000000E+00  0.00000000E+00
MxBond                                     I                0
NBond                                      I   N=           3
           0           0           0
IBond                                      I                0
RBond                                      R      0.000000000000000E+00
Shell types                                I   N=          13
           0           0           0           1           0          -1
          -1          -1          -2           0           0           0
           1
Number of primitives per shell             I   N=          13
           3           1           1           1           6           3
           1           1           1           3           1           1
           1
Shell to atom map                          I   N=          13
           1           1           1           1           2           2
           2           2           2           3           3           3
           3
Primitive exponents                        R   N=          24
  3.38650000E+01  5.09479000E+00  1.15879000E+00  3.25840000E-01  1.02741000E-01
  7.50000000E-01  8.58850000E+03  1.29723000E+03  2.99296000E+02  8.73771000E+01
  2.56789000E+01  3.74004000E+00  4.21175000E+01  9.62837000E+00  2.85332000E+00
  9.05661000E-01  2.55611000E-01  1.29200000E+00  3.38650000E+01  5.09479000E+00
  1.15879000E+00  3.25840000E-01  1.02741000E-01  7.50000000E-01
Contraction coefficients                   R   N=          24
  2.54938145E-02  1.90373109E-01  8.52161486E-01  1.00000000E+00  1.00000000E+00
  1.00000000E+00  1.89515008E-03  1.43859006E-02  7.07320031E-02  2.40001011E-01
  5.94797026E-01  2.80802012E-01  1.13889012E-01  9.20811101E-01 -3.27447036E-03
  1.00000000E+00  1.00000000E+00  1.00000000E+00  2.54938145E-02  1.90373109E-01
  8.52161486E-01  1.00000000E+00  1.00000000E+00  1.00000000E+00
P(S=P) Contraction coefficients            R   N=          24
  0.00000000E+00  0.00000000E+00  0.00000000E+00  0.00000000E+00  0.00000000E+00
  0.00000000E+00  0.00000000E+00  0.00000000E+00  0.00000000E+00  0.00000000E+00
  0.00000000E+00  0.00000000E+00  3.65113974E-02  2.37152983E-01  8.19701941E-01
  1.00000000E+00  1.00000000E+00  0.00000000E+00  0.00000000E+00  0.00000000E+00
  0.00000000E+00  0.00000000E+00  0.00000000E+00  0.00000000E+00
Coordinates of each shell                  R   N=          39
  9.72979808E-31  1.41106885E+00 -9.06596624E-01  9.72979808E-31  1.41106885E+00
 -9.06596624E-01  9.72979808E-31  1.41106885E+00 -9.06596624E-01  9.72979808E-31
  1.41106885E+00 -9.06596624E-01  1.03277993E-32  8.38223805E-18  2.26649156E-01
  1.03277993E-32  8.38223805E-18  2.26649156E-01  1.03277993E-32  8.38223805E-18
  2.26649156E-01  1.03277993E-32  8.38223805E-18  2.26649156E-01  1.03277993E-32
  8.38223805E-18  2.26649156E-01 -1.72800387E-16 -1.41106885E+00 -9.06596624E-01
 -1.72800387E-16 -1.41106885E+00 -9.06596624E-01 -1.72800387E-16 -1.41106885E+00
 -9.06596624E-01 -1.72800387E-16 -1.41106885E+00 -9.06596624E-01
Alpha Orbital Energies                     R   N=          30
 -2.05461079E+01 -1.34279465E+00 -7.02261654E-01 -5.75936477E-01 -5.00499854E-01
  1.49712961E-01  2.17243566E-01  5.62827490E-01  6.19179010E-01  9.99116415E-01
  1.00321216E+00  1.11051231E+00  1.31568799E+00  1.45743010E+00  1.52188620E+00
  1.70527683E+00  1.93671696E+00  2.23817204E+00  2.39290996E+00  2.59444829E+00
  2.78693197E+00  3.50531655E+00  3.54363982E+00  3.72169227E+00  3.99793797E+00
  4.27390379E+00  5.32582172E+00  5.76254814E+00  6.17671824E+00  5.15493982E+01
Alpha MO coefficients                      R   N=         900
  2.04583504E-04  1.12593689E-04  9.00393230E-05  0.00000000E+00 -8.45638338E-05
  3.15133511E-05  5.51450637E-01  4.71688004E-01  0.00000000E+00  0.00000000E+00
 -1.80287899E-03  5.47877916E-03  0.00000000E+00  0.00000000E+00  6.46983662E-04
 -4.72370275E-04  0.00000000E+00  0.00000000E+00 -8.75572646E-05 -2.22260484E-05
  0.00000000E+00  0.00000000E+00  1.43270455E-04  0.00000000E+00  2.04583504E-04
  1.12593689E-04  9.00393230E-05  0.00000000E+00  8.45638338E-05  3.15133511E-05
  9.39150938E-02  8.12279165E-02 -2.43608008E-03  0.00000000E+00 -2.34494738E-02
  1.50944222E-02 -1.13403967E-01 -1.89485433E-01  0.00000000E+00  0.00000000E+00
 -3.73553653E-02  5.39713221E-01  0.00000000E+00  0.00000000E+00 -6.26475176E-02
  3.75866522E-01  0.00000000E+00  0.00000000E+00 -2.08826250E-02  3.27572507E-03
  0.00000000E+00  0.00000000E+00 -7.37421451E-03  0.00000000E+00  9.39150938E-02
  8.12279165E-02 -2.43608008E-03  0.00000000E+00  2.34494738E-02  1.50944222E-02
  1.48311095E-01  2.13423067E-01  5.92728016E-02  0.00000000E+00 -1.81769715E-02
  2.67362012E-02  0.00000000E+00  0.00000000E+00  0.00000000E+00  2.26815173E-01
  0.00000000E+00  0.00000000E+00  0.00000000E+00  3.48548434E-01  0.00000000E+00
  0.00000000E+00  0.00000000E+00  2.18320844E-01  0.00000000E+00  0.00000000E+00
  0.00000000E+00 -2.90565470E-02  0.00000000E+00  0.00000000E+00 -1.48311095E-01
 -2.13423067E-01 -5.92728016E-02  0.00000000E+00 -1.81769715E-02 -2.67362012E-02
 -8.92369319E-02 -1.53509044E-01 -2.89202747E-02  0.00000000E+00  3.08322306E-02
  7.67027484E-03 -3.88180547E-02 -6.59707870E-02  0.00000000E+00  0.00000000E+00
  2.53152371E-01  1.99415354E-01  0.00000000E+00  0.00000000E+00  3.74446776E-01
  3.40220240E-01  0.00000000E+00  0.00000000E+00  3.31635715E-01 -1.71192495E-02
  0.00000000E+00  0.00000000E+00  4.82984501E-03  0.00000000E+00 -8.92369319E-02
 -1.53509044E-01 -2.89202747E-02  0.00000000E+00 -3.08322306E-02  7.67027484E-03
  0.00000000E+00  0.00000000E+00  0.00000000E+00  3.10257080E-02  0.00000000E+00
  0.00000000E+00  0.00000000E+00  0.00000000E+00  2.92222874E-01  0.00000000E+00
  0.00000000E+00  0.00000000E+00  4.37257158E-01  0.00000000E+00  0.00000000E+00
  0.00000000E+00  4.66063139E-01  0.00000000E+00  0.00000000E+00  0.00000000E+00
 -1.71837527E-02  0.00000000E+00  0.00000000E+00  0.00000000E+00  0.00000000E+00
  0.00000000E+00  0.00000000E+00  3.10257080E-02  0.00000000E+00  0.00000000E+00
  3.52269248E-02 -7.05917510E-02  8.37680267E-01  0.00000000E+00  6.20960158E-03
  2.89351828E-03  3.32093467E-02  5.41312800E-02  0.00000000E+00  0.00000000E+00
  7.60117275E-02 -1.02557292E-01  0.00000000E+00  0.00000000E+00  1.19095498E-01
 -8.34356894E-01  0.00000000E+00  0.00000000E+00  2.10330857E-01 -4.99139315E-03
  0.00000000E+00  0.00000000E+00  2.80157350E-03  0.00000000E+00  3.52269248E-02
 -7.05917510E-02  8.37680267E-01  0.00000000E+00 -6.20960158E-03  2.89351828E-03
  2.68529099E-02 -1.23124762E-01  1.57244607E+00  0.00000000E+00  8.33646886E-03
 -8.52211460E-03  0.00000000E+00  0.00000000E+00  0.00000000E+00 -1.23510934E-01
  0.00000000E+00  0.00000000E+00  0.00000000E+00 -1.32511875E-01  0.00000000E+00
  0.00000000E+00  0.00000000E+00 -5.02667634E-01  0.00000000E+00  0.00000000E+00
  0.00000000E+00  4.76827724E-03  0.00000000E+00  0.00000000E+00 -2.68529099E-02
  1.23124762E-01 -1.57244607E+00  0.00000000E+00  8.33646886E-03  8.52211460E-03
  8.42873116E-02  1.42944058E+00 -7.60864332E-01  0.00000000E+00 -2.08629554E-02
 -3.64538161E-03  0.00000000E+00  0.00000000E+00  0.00000000E+00 -1.21086199E-01
  0.00000000E+00  0.00000000E+00  0.00000000E+00 -1.82448035E-01  0.00000000E+00
  0.00000000E+00  0.00000000E+00 -1.07917855E+00  0.00000000E+00  0.00000000E+00
  0.00000000E+00 -1.47542567E-02  0.00000000E+00  0.00000000E+00 -8.42873116E-02
 -1.42944058E+00  7.60864332E-01  0.00000000E+00 -2.08629554E-02  3.64538161E-03
  6.19288526E-02  1.81877526E+00 -6.23094749E-01  0.00000000E+00 -3.15944135E-02
  3.78361162E-02  3.37532106E-02  5.91624942E-02  0.00000000E+00  0.00000000E+00
  1.04142691E-01 -1.36943843E-01  0.00000000E+00  0.00000000E+00  1.95668167E-01
 -1.37449324E+00  0.00000000E+00  0.00000000E+00  1.08060081E+00 -1.07117078E-02
  0.00000000E+00  0.00000000E+00 -9.47037688E-03  0.00000000E+00  6.19288526E-02
  1.81877526E+00 -6.23094749E-01  0.00000000E+00  3.15944135E-02  3.78361162E-02
  3.29852840E-02  6.13098078E-01  9.79906390E-02  0.00000000E+00 -1.48813983E-01
  1.10698690E-01  1.51837449E-02  2.82845747E-02  0.00000000E+00  0.00000000E+00
 -2.32841398E-01 -6.13576533E-02  0.00000000E+00  0.00000000E+00 -7.33065950E-01
 -9.45530280E-01  0.00000000E+00  0.00000000E+00  1.60279882E+00  3.08457504E-03
  0.00000000E+00  0.00000000E+00  1.56242309E-02  0.00000000E+00  3.29852840E-02
  6.13098078E-01  9.79906390E-02  0.00000000E+00  1.48813983E-01  1.10698690E-01
  0.00000000E+00  0.00000000E+00  0.00000000E+00 -1.99825469E-02  0.00000000E+00
  0.00000000E+00  0.00000000E+00  0.00000000E+00 -2.39972267E-01  0.00000000E+00
  0.00000000E+00  0.00000000E+00 -8.36728568E-01  0.00000000E+00  0.00000000E+00
  0.00000000E+00  1.15080725E+00  0.00000000E+00  0.00000000E+00  0.00000000E+00
  8.23281839E-03  0.00000000E+00  0.00000000E+00  0.00000000E+00  0.00000000E+00
  0.00000000E+00  0.00000000E+00 -1.99825469E-02  0.00000000E+00  0.00000000E+00
 -1.40474338E-02 -3.37184970E-01 -7.83723829E-01  0.00000000E+00  1.66039105E-01
 -1.48128037E-01  0.00000000E+00  0.00000000E+00  0.00000000E+00 -2.40159616E-01
  0.00000000E+00  0.00000000E+00  0.00000000E+00 -7.17418754E-01  0.00000000E+00
  0.00000000E+00  0.00000000E+00  1.77969427E+00  0.00000000E+00  0.00000000E+00
  0.00000000E+00 -3.00594011E-02  0.00000000E+00  0.00000000E+00  1.40474338E-02
  3.37184970E-01  7.83723829E-01  0.00000000E+00  1.66039105E-01  1.48128037E-01
  1.29062722E-02 -8.84369471E-01 -3.35386056E-01  0.00000000E+00  1.48292606E-01
 -3.77369805E-01  9.92677666E-02  2.04276787E-01  0.00000000E+00  0.00000000E+00
  2.92911559E-02 -1.50234968E+00  0.00000000E+00  0.00000000E+00 -1.57758652E-01
  3.12970050E+00  0.00000000E+00  0.00000000E+00 -6.19869311E-01  3.37861118E-02
  0.00000000E+00  0.00000000E+00 -1.44638859E-02  0.00000000E+00  1.29062722E-02
 -8.84369471E-01 -3.35386056E-01  0.00000000E+00 -1.48292606E-01 -3.77369805E-01
  8.12827576E-02 -1.16704347E+00  1.78145498E-02  0.00000000E+00  6.08933311E-01
  3.88603749E-01  3.51474885E-02  7.30923028E-02  0.00000000E+00  0.00000000E+00
 -1.16156197E-02 -6.18549352E-01  0.00000000E+00  0.00000000E+00 -1.09311887E-01
  2.04729506E+00  0.00000000E+00  0.00000000E+00 -1.23995893E+00 -1.09568396E-01
  0.00000000E+00  0.00000000E+00 -5.94140845E-02  0.00000000E+00  8.12827576E-02
 -1.16704347E+00  1.78145498E-02  0.00000000E+00 -6.08933311E-01  3.88603749E-01
  0.00000000E+00  0.00000000E+00  0.00000000E+00  6.90708027E-01  0.00000000E+00
  0.00000000E+00  0.00000000E+00  0.00000000E+00  0.00000000E+00  0.00000000E+00
  0.00000000E+00  0.00000000E+00  0.00000000E+00  0.00000000E+00  0.00000000E+00
  0.00000000E+00  0.00000000E+00  0.00000000E+00  0.00000000E+00  0.00000000E+00
  0.00000000E+00  0.00000000E+00  0.00000000E+00  1.24855261E-01  0.00000000E+00
  0.00000000E+00  0.00000000E+00 -6.90708027E-01  0.00000000E+00  0.00000000E+00
  0.00000000E+00  0.00000000E+00  0.00000000E+00  7.65028664E-01  0.00000000E+00
  0.00000000E+00  0.00000000E+00  0.00000000E+00 -4.90678293E-02  0.00000000E+00
  0.00000000E+00  0.00000000E+00 -5.21238049E-02  0.00000000E+00  0.00000000E+00
  0.00000000E+00 -5.54080911E-01  0.00000000E+00  0.00000000E+00  0.00000000E+00
 -1.46429936E-01  0.00000000E+00  0.00000000E+00  0.00000000E+00  0.00000000E+00
  0.00000000E+00  0.00000000E+00  7.65028664E-01  0.00000000E+00  0.00000000E+00
  1.92655284E-01 -7.39144395E-01  1.64761528E-01  0.00000000E+00 -4.84941147E-01
 -6.51816825E-01  0.00000000E+00  0.00000000E+00  0.00000000E+00 -1.04348247E-02
  0.00000000E+00  0.00000000E+00  0.00000000E+00 -8.65004234E-03  0.00000000E+00
  0.00000000E+00  0.00000000E+00  8.81317753E-01  0.00000000E+00  0.00000000E+00
  0.00000000E+00 -7.47373029E-02  0.00000000E+00  0.00000000E+00 -1.92655284E-01
  7.39144395E-01 -1.64761528E-01  0.00000000E+00 -4.84941147E-01  6.51816825E-01
  6.74119758E-01 -6.73423888E-01  5.35122965E-01  0.00000000E+00 -2.94048489E-01
  4.86746295E-01  0.00000000E+00  0.00000000E+00  0.00000000E+00 -1.69891943E-01
  0.00000000E+00  0.00000000E+00  0.00000000E+00 -4.81386794E-01  0.00000000E+00
  0.00000000E+00  0.00000000E+00  2.99649784E-03  0.00000000E+00  0.00000000E+00
  0.00000000E+00 -2.33604416E-01  0.00000000E+00  0.00000000E+00 -6.74119758E-01
  6.73423888E-01 -5.35122965E-01  0.00000000E+00 -2.94048489E-01 -4.86746295E-01
 -8.85406140E-01  1.08661510E+00 -4.11089759E-01  0.00000000E+00  2.91552481E-01
 -1.44144503E-01 -3.01937237E-02 -5.65232320E-02  0.00000000E+00  0.00000000E+00
 -1.67520908E-01  2.43242672E-01  0.00000000E+00  0.00000000E+00 -2.46371749E-01
 -1.30904650E-01  0.00000000E+00  0.00000000E+00  2.33431718E-01 -9.04593188E-02
  0.00000000E+00  0.00000000E+00  2.76002795E-01  0.00000000E+00 -8.85406140E-01
  1.08661510E+00 -4.11089759E-01  0.00000000E+00 -2.91552481E-01 -1.44144503E-01
 -5.60601112E-01  1.98320914E+00 -2.66589115E-01  0.00000000E+00 -8.78465647E-01
  6.84413987E-01  5.53797795E-02  1.29338657E-01  0.00000000E+00  0.00000000E+00
  2.22948665E-02 -9.01692251E-01  0.00000000E+00  0.00000000E+00  6.87895000E-01
 -1.78292905E+00  0.00000000E+00  0.00000000E+00  7.55714197E-01  1.19225944E-02
  0.00000000E+00  0.00000000E+00 -8.32290656E-03  0.00000000E+00 -5.60601112E-01
  1.98320914E+00 -2.66589115E-01  0.00000000E+00  8.78465647E-01  6.84413987E-01
 -7.91717281E-01  2.08097433E+00 -5.29366271E-01  0.00000000E+00 -8.98930696E-01
  6.33174420E-01  0.00000000E+00  0.00000000E+00  0.00000000E+00 -1.17450341E-02
  0.00000000E+00  0.00000000E+00  0.00000000E+00 -8.78512778E-01  0.00000000E+00
  0.00000000E+00  0.00000000E+00 -6.49244825E-01  0.00000000E+00  0.00000000E+00
  0.00000000E+00  2.31452467E-01  0.00000000E+00  0.00000000E+00  7.91717281E-01
 -2.08097433E+00  5.29366271E-01  0.00000000E+00 -8.98930696E-01 -6.33174420E-01
  0.00000000E+00  0.00000000E+00  0.00000000E+00  3.61020645E-01  0.00000000E+00
  0.00000000E+00  0.00000000E+00  0.00000000E+00 -1.97054396E-02  0.00000000E+00
  0.00000000E+00  0.00000000E+00  1.43638635E-02  0.00000000E+00  0.00000000E+00
  0.00000000E+00 -2.69681438E-01  0.00000000E+00  0.00000000E+00  0.00000000E+00
  1.03604301E+00  0.00000000E+00  0.00000000E+00  0.00000000E+00  0.00000000E+00
  0.00000000E+00  0.00000000E+00  3.61020645E-01  0.00000000E+00  0.00000000E+00
  0.00000000E+00  0.00000000E+00  0.00000000E+00 -3.37298922E-01  0.00000000E+00
  0.00000000E+00  0.00000000E+00  0.00000000E+00  0.00000000E+00  0.00000000E+00
  0.00000000E+00  0.00000000E+00  0.00000000E+00  0.00000000E+00  0.00000000E+00
  0.00000000E+00  0.00000000E+00  0.00000000E+00  0.00000000E+00  0.00000000E+00
  0.00000000E+00  0.00000000E+00  0.00000000E+00  1.05189587E+00  0.00000000E+00
  0.00000000E+00  0.00000000E+00  3.37298922E-01  0.00000000E+00  0.00000000E+00
 -1.68613655E-02 -3.96615928E-01  2.53851532E-02  0.00000000E+00  3.45245417E-01
  2.65950235E-01  5.77308915E-04  1.67163213E-03  0.00000000E+00  0.00000000E+00
 -3.14554155E-02 -6.80927878E-02  0.00000000E+00  0.00000000E+00 -1.13765097E-02
  5.92300255E-01  0.00000000E+00  0.00000000E+00 -5.52908867E-01  1.06387446E+00
  0.00000000E+00  0.00000000E+00  2.18952932E-01  0.00000000E+00 -1.68613655E-02
 -3.96615928E-01  2.53851532E-02  0.00000000E+00 -3.45245417E-01  2.65950235E-01
 -3.15090042E-01 -1.09464903E+00 -4.54618013E-02  0.00000000E+00  5.74504826E-01
 -4.64874870E-01 -2.21122091E-02 -4.39014724E-02  0.00000000E+00  0.00000000E+00
 -3.08414077E-01  1.16636742E-01  0.00000000E+00  0.00000000E+00 -1.29200093E-01
  2.05353516E+00  0.00000000E+00  0.00000000E+00 -9.92218831E-01  2.02142534E-01
  0.00000000E+00  0.00000000E+00 -1.09870774E+00  0.00000000E+00 -3.15090042E-01
 -1.09464903E+00 -4.54618013E-02  0.00000000E+00 -5.74504826E-01 -4.64874870E-01
  4.06825338E-01  5.01725622E-01  2.30751260E-01  0.00000000E+00 -4.60749396E-01
  3.69935595E-01  0.00000000E+00  0.00000000E+00  0.00000000E+00 -4.52104986E-01
  0.00000000E+00  0.00000000E+00  0.00000000E+00  3.64904131E-02  0.00000000E+00
  0.00000000E+00  0.00000000E+00 -9.13536923E-01  0.00000000E+00  0.00000000E+00
  0.00000000E+00  1.15661287E+00  0.00000000E+00  0.00000000E+00 -4.06825338E-01
 -5.01725622E-01 -2.30751260E-01  0.00000000E+00 -4.60749396E-01 -3.69935595E-01
  0.00000000E+00  0.00000000E+00  0.00000000E+00 -5.86022042E-02  0.00000000E+00
  0.00000000E+00  0.00000000E+00  0.00000000E+00 -1.27045736E+00  0.00000000E+00
  0.00000000E+00  0.00000000E+00  1.37389424E+00  0.00000000E+00  0.00000000E+00
  0.00000000E+00 -4.81377852E-01  0.00000000E+00  0.00000000E+00  0.00000000E+00
 -2.84670054E-02  0.00000000E+00  0.00000000E+00  0.00000000E+00  0.00000000E+00
  0.00000000E+00  0.00000000E+00 -5.86022042E-02  0.00000000E+00  0.00000000E+00
  2.88110130E-01  4.92420021E-01  1.35839623E-02  0.00000000E+00 -4.61791505E-01
  2.79997894E-01  2.25627946E-02  4.23109275E-02  0.00000000E+00  0.00000000E+00
 -1.26278051E+00 -2.24189743E-01  0.00000000E+00  0.00000000E+00  1.72451803E+00
 -1.01345099E+00  0.00000000E+00  0.00000000E+00 -8.49740972E-02 -1.14946270E-01
  0.00000000E+00  0.00000000E+00  3.54539511E-01  0.00000000E+00  2.88110130E-01
  4.92420021E-01  1.35839623E-02  0.00000000E+00  4.61791505E-01  2.79997894E-01
 -3.44370156E-01 -4.89028317E-01  1.52208530E-01  0.00000000E+00  5.08929967E-01
 -4.66669011E-01  0.00000000E+00  0.00000000E+00  0.00000000E+00 -1.25407907E+00
  0.00000000E+00  0.00000000E+00  0.00000000E+00  1.98414595E+00  0.00000000E+00
  0.00000000E+00  0.00000000E+00 -1.59667822E-01  0.00000000E+00  0.00000000E+00
  0.00000000E+00 -6.52064076E-01  0.00000000E+00  0.00000000E+00  3.44370156E-01
  4.89028317E-01 -1.52208530E-01  0.00000000E+00  5.08929967E-01  4.66669011E-01
  5.50662060E-03  6.50080698E-02 -3.04006877E-02  0.00000000E+00 -5.73009742E-02
  4.56226849E-02 -2.24715218E+00  2.33605431E+00  0.00000000E+00  0.00000000E+00
 -1.84380234E-02 -2.66237072E-01  0.00000000E+00  0.00000000E+00  7.14962233E-02
  7.48089417E-02  0.00000000E+00  0.00000000E+00  9.14561197E-03 -4.19707559E-03
  0.00000000E+00  0.00000000E+00  2.40867981E-02  0.00000000E+00  5.50662060E-03
  6.50080698E-02 -3.04006877E-02  0.00000000E+00  5.73009742E-02  4.56226849E-02
Total SCF Density                          R   N=         465
  7.75589955E-02  1.05960471E-01  1.51424838E-01  2.22856089E-02  3.37836785E-02
  8.71117978E-03  9.36762270E-19  1.28793965E-18  2.34139766E-19  1.92518912E-03
 -1.52989941E-02 -2.10343453E-02 -3.82391885E-03 -1.06334915E-19  3.66182742E-03
  9.39680803E-03  1.15095150E-02  2.65226942E-03  7.38989205E-20 -1.20690082E-03
  2.00300029E-03 -1.41470448E-02 -6.38111127E-03  2.89708439E-03 -1.73377730E-19
  2.83156672E-03 -3.98426889E-03  6.36930212E-01 -2.36240241E-02 -1.04225709E-02
  4.82393088E-03 -2.90160611E-19  4.73883890E-03 -6.70264546E-03  5.68323816E-01
  5.25492895E-01 -4.11947864E-18 -5.92802423E-18 -1.64635720E-18  1.81328432E-02
  1.61516204E-18 -7.42622860E-19  0.00000000E+00  0.00000000E+00  1.70788416E-01
  6.72784137E-02  9.68151801E-02  2.68879415E-02  1.61516204E-18 -8.24562590E-03
  1.21283522E-02 -4.79403467E-19 -7.62460658E-19  4.15742655E-18  1.02890246E-01
 -5.21982847E-02 -8.37913597E-02 -1.44607956E-02 -1.06312589E-18  1.73627368E-02
  2.75566759E-03 -1.31696695E-02 -2.09455199E-02  2.29333243E-34  1.02214688E-18
  1.30969593E-01  6.57862486E-02  2.64566740E-02 -1.41628763E-02  7.96978001E-19
 -1.30160684E-02  1.93528049E-02 -1.31850520E-01 -2.25678214E-01  0.00000000E+00
  2.20679705E-18  6.06228152E-02  6.62173723E-01 -6.33043111E-18 -9.10963554E-18
 -2.52996842E-18  2.71324258E-02  2.43718314E-18 -1.14119365E-18  0.00000000E+00
  0.00000000E+00  2.55553087E-01  5.96633969E-18  3.52417969E-34  0.00000000E+00
  3.82387644E-01  1.03387200E-01  1.48776552E-01  4.13188844E-02  2.43718314E-18
 -1.26711099E-02  1.86377221E-02 -5.15019571E-19 -9.11987484E-19  5.96633969E-18
  1.58112147E-01  1.31594058E-18  2.97494518E-18  8.53646284E-18  2.42972022E-01
 -7.85957932E-02 -1.25139242E-01 -2.13528620E-02 -1.59370589E-18  2.60280519E-02
  3.85300399E-03 -1.41480778E-02 -2.50531641E-02  3.52417969E-34  1.31594058E-18
  1.94262287E-01  8.17245754E-02  5.41563112E-34  1.64897871E-18  2.88271037E-01
  9.87846526E-03 -4.33921649E-02 -2.15098926E-02 -2.05233820E-19  3.35183334E-03
  1.65661117E-02 -1.12183863E-01 -1.87777278E-01  0.00000000E+00  5.24829148E-18
  1.44175562E-01  5.41405365E-01  0.00000000E+00  7.56049248E-18  2.07693924E-01
  5.14051354E-01 -3.96520233E-18 -5.70601708E-18 -1.58470039E-18  2.89198777E-02
  2.25674753E-18 -7.14811302E-19  0.00000000E+00  0.00000000E+00  2.72388620E-01
  1.06143772E-17  2.20744611E-34  0.00000000E+00  4.07578887E-01  1.56374951E-17
  3.39219759E-34  0.00000000E+00  4.34429699E-01  6.47588071E-02  9.31894084E-02
  2.58809761E-02  2.25674753E-18 -7.93682354E-03  1.16741400E-02 -7.68343552E-19
 -1.30775342E-18  1.06143772E-17  9.90369603E-02  2.56388084E-18  3.99419325E-18
  1.56374951E-17  1.52190777E-01  3.59599655E-18  7.64299288E-18  2.07633058E-17
  9.53279820E-02 -6.31107306E-02 -1.05210687E-01 -1.90802642E-02 -1.31213666E-18
  2.14295256E-02  4.45704632E-03 -2.11071286E-02 -3.59252311E-02  2.20744611E-34
  2.56388084E-18  1.69469207E-01  1.09724290E-01  3.39219759E-34  3.59599655E-18
  2.50976224E-01  2.09960288E-01  2.12477627E-34  4.56877859E-18  2.20836678E-01
  3.67060956E-03  5.78807486E-03  9.74222935E-04  7.40442063E-20 -1.20927359E-03
 -1.63729743E-04  5.61598351E-04  9.96368827E-04 -5.08861434E-35  5.06638224E-19
 -8.91220885E-03 -3.29202167E-03 -7.81970859E-35  7.95463066E-19 -1.32309564E-02
 -9.18613854E-03 -4.89804346E-35  3.81622421E-19 -1.14915166E-02  6.07599141E-04
  5.27732880E-19  7.59419716E-19  2.10909414E-19 -1.06627619E-03 -1.29967242E-19
  9.51349757E-20  0.00000000E+00  0.00000000E+00 -1.00429712E-02  1.92138304E-19
 -2.93791286E-35  0.00000000E+00 -1.50274378E-02  3.20099252E-19 -4.51471086E-35
  0.00000000E+00 -1.60174275E-02 -2.03904779E-19 -2.82788671E-35  6.51885671E-36
  5.90562715E-04 -8.61881662E-03 -1.24026748E-02 -3.44452589E-03 -1.29967242E-19
  1.05632005E-03 -1.55372337E-03  8.83948271E-20  1.46273580E-19  1.92138304E-19
 -1.31809315E-02  2.69492934E-20 -4.27142483E-19  3.20099252E-19 -2.02552279E-02
  6.84256185E-20 -6.61353596E-19 -2.03904779E-19 -1.26872997E-02 -1.34874538E-19
 -7.59338113E-20 -6.72310804E-20  1.68856584E-03 -2.24704257E-03 -2.68080168E-03
 -2.43406735E-04 -3.94107997E-20  6.43648460E-04 -1.48517507E-04  1.45557315E-03
  2.29251302E-03 -2.93791286E-35  5.88866430E-19  2.99578979E-03 -6.03206174E-03
 -4.51471086E-35  9.02640936E-19  4.54117764E-03 -2.25715401E-03 -2.82788671E-35
  5.89668641E-19  3.51145903E-03 -2.13684810E-04  3.76366368E-36 -6.92813586E-20
  1.55453938E-04 -2.75174261E-19 -3.28292677E-19 -2.98077434E-20 -3.88146796E-20
  7.88215993E-20 -1.81875483E-20  1.78250413E-19  2.80742601E-19 -3.65585121E-19
 -9.03019305E-36  3.66866321E-19 -7.38690113E-19 -5.47030111E-19 -1.32510622E-35
  5.56115499E-19 -2.76412515E-19 -5.83067803E-19 -2.00479646E-35  4.30015504E-19
 -2.61679777E-20  2.14977159E-20  3.59400138E-37  1.90369880E-20  5.44512504E-36
 -1.04257286E-02 -2.06515648E-02 -1.28776476E-02  2.76492105E-19 -4.51560787E-03
 -6.46429311E-03 -1.41470448E-02 -2.36240241E-02  4.11947864E-18 -6.72784137E-02
 -5.21982847E-02  6.57862486E-02  6.33043111E-18 -1.03387200E-01 -7.85957932E-02
  9.87846526E-03  3.96520233E-18 -6.47588071E-02 -6.31107306E-02  3.67060956E-03
 -5.27732880E-19  8.61881662E-03 -2.24704257E-03 -2.75174261E-19  7.75589955E-02
 -2.06515648E-02 -3.07727841E-02 -1.68170539E-02  3.37795740E-19 -5.51680528E-03
 -1.13149732E-02 -6.38111127E-03 -1.04225709E-02  5.92802423E-18 -9.68151801E-02
 -8.37913597E-02  2.64566740E-02  9.10963554E-18 -1.48776552E-01 -1.25139242E-01
 -4.33921649E-02  5.70601708E-18 -9.31894084E-02 -1.05210687E-01  5.78807486E-03
 -7.59419716E-19  1.24026748E-02 -2.68080168E-03 -3.28292677E-19  1.05960471E-01
  1.51424838E-01 -1.28776476E-02 -1.68170539E-02 -5.34188025E-03 -2.97384178E-20
  4.85681260E-04 -3.68664878E-03  2.89708439E-03  4.82393088E-03  1.64635720E-18
 -2.68879415E-02 -1.44607956E-02 -1.41628763E-02  2.52996842E-18 -4.13188844E-02
 -2.13528620E-02 -2.15098926E-02  1.58470039E-18 -2.58809761E-02 -1.90802642E-02
  9.74222935E-04 -2.10909414E-19  3.44452589E-03 -2.43406735E-04 -2.98077434E-20
  2.22856089E-02  3.37836785E-02  8.71117978E-03 -2.76492105E-19 -3.37795740E-19
  2.97384178E-20  1.92518912E-03  2.61172248E-19  4.51286946E-20  1.73377730E-19
  2.90160611E-19  1.81328432E-02  1.61516204E-18  1.06312589E-18 -7.96978001E-19
  2.71324258E-02  2.43718314E-18  1.59370589E-18  2.05233820E-19  2.89198777E-02
  2.25674753E-18  1.31213666E-18 -7.40442063E-20 -1.06627619E-03 -1.29967242E-19
  3.94107997E-20 -3.88146796E-20 -9.36762270E-19 -1.28793965E-18 -2.34139766E-19
  1.92518912E-03  4.51560787E-03  5.51680528E-03 -4.85681260E-04  2.61172248E-19
 -2.34021825E-03 -7.37031854E-04 -2.83156672E-03 -4.73883890E-03  1.61516204E-18
 -8.24562590E-03 -1.73627368E-02  1.30160684E-02  2.43718314E-18 -1.26711099E-02
 -2.60280519E-02 -3.35183334E-03  2.25674753E-18 -7.93682354E-03 -2.14295256E-02
  1.20927359E-03 -1.29967242E-19  1.05632005E-03 -6.43648460E-04 -7.88215993E-20
  1.52989941E-02  2.10343453E-02  3.82391885E-03 -1.06334915E-19  3.66182742E-03
 -6.46429311E-03 -1.13149732E-02 -3.68664878E-03 -4.51286946E-20  7.37031854E-04
 -8.56297526E-04 -3.98426889E-03 -6.70264546E-03  7.42622860E-19 -1.21283522E-02
  2.75566759E-03  1.93528049E-02  1.14119365E-18 -1.86377221E-02  3.85300399E-03
  1.65661117E-02  7.14811302E-19 -1.16741400E-02  4.45704632E-03 -1.63729743E-04
 -9.51349757E-20  1.55372337E-03 -1.48517507E-04 -1.81875483E-20  9.39680803E-03
  1.15095150E-02  2.65226942E-03 -7.38989205E-20  1.20690082E-03  2.00300029E-03
Total MP2 Density                          R   N=         465
  8.04777264E-02  1.09493160E-01  1.64599641E-01  2.65057340E-02  4.01856941E-02
  1.27000468E-02  9.36762270E-19  1.28793965E-18  2.34139766E-19  3.54845462E-03
 -1.43300596E-02 -2.08362591E-02 -3.76669047E-03 -1.06334915E-19  4.21801521E-03
  8.28702105E-03  9.83110000E-03  2.40466676E-03  7.38989205E-20 -5.06475603E-04
  2.82713570E-03 -1.37870411E-02 -5.47401865E-03  2.69075790E-03 -1.73377730E-19
  2.52622829E-03 -3.89081512E-03  6.36820440E-01 -2.29776307E-02 -8.89610101E-03
  4.50295613E-03 -2.90160611E-19  4.24439916E-03 -6.55882838E-03  5.68258171E-01
  5.25308484E-01 -4.11947864E-18 -5.92802423E-18 -1.64635720E-18  1.86532528E-02
  1.61516204E-18 -7.42622860E-19 -2.15135414E-35 -6.61101165E-35  1.78748041E-01
  6.65710560E-02  9.42325177E-02  3.06948227E-02  1.61516204E-18 -6.72321316E-03
  1.11669439E-02 -4.70224228E-19 -7.50234593E-19  4.15742655E-18  1.13460626E-01
 -5.17832059E-02 -8.32083339E-02 -1.64488263E-02 -1.06312589E-18  1.64732886E-02
  3.95329918E-03 -1.25656415E-02 -1.97581786E-02  1.38852344E-34  1.03488253E-18
  1.39993350E-01  6.42190009E-02  2.36460332E-02 -1.23490005E-02  7.96978001E-19
 -1.14901682E-02  1.82024077E-02 -1.33076427E-01 -2.26635811E-01  3.19961064E-35