3
* (null), Energy   -76.046263
H      0.000000    0.746706   -0.479750    0.000000   -1.100000    0.880000
O      0.000000    0.000000    0.119938    0.000000    0.140000    0.000000
H      0.000000   -0.746706   -0.479750    0.000000   -1.100000   -0.880000
3
* Frequency(3)  4014.0086
H      0.000000    0.621697   -0.379743    0.000000   -1.100000    0.880000
O      0.000000    0.015910    0.119938    0.000000    0.140000    0.000000
H      0.000000   -0.871715   -0.579757    0.000000   -1.100000   -0.880000
3
* Frequency(3)  4014.0086
H      0.000000    0.510234   -0.290572    0.000000   -1.100000    0.880000
O      0.000000    0.030096    0.119938    0.000000    0.140000    0.000000
H      0.000000   -0.983178   -0.668928    0.000000   -1.100000   -0.880000
3
* Frequency(3)  4014.0086
H      0.000000    0.424397   -0.221903    0.000000   -1.100000    0.880000
O      0.000000    0.041021    0.119938    0.000000    0.140000    0.000000
H      0.000000   -1.069015   -0.737597    0.000000   -1.100000   -0.880000
3
* Frequency(3)  4014.0086
H      0.000000    0.373487   -0.181175    0.000000   -1.100000    0.880000
O      0.000000    0.047501    0.119938    0.000000    0.140000    0.000000
H      0.000000   -1.119925   -0.778325    0.000000   -1.100000   -0.880000
3
* Frequency(3)  4014.0086
H      0.000000    0.363021   -0.172802    0.000000   -1.100000    0.880000
O      0.000000    0.048833    0.119938    0.000000    0.140000    0.000000
H      0.000000   -1.130391   -0.786698    0.000000   -1.100000   -0.880000
3
* Frequency(3)  4014.0086
H      0.000000    0.394133   -0.197692    0.000000   -1.100000    0.880000
O      0.000000    0.044873    0.119938    0.000000    0.140000    0.000000
H      0.000000   -1.099279   -0.761808    0.000000   -1.100000   -0.880000
3
* Frequency(3)  4014.0086
H      0.000000    0.463452   -0.253147    0.000000   -1.100000    0.880000
O      0.000000    0.036050    0.119938    0.000000    0.140000    0.000000
H      0.000000   -1.029960   -0.706353    0.000000   -1.100000   -0.880000
3
* Frequency(3)  4014.0086
H      0.000000    0.563466   -0.333158    0.000000   -1.100000    0.880000
O      0.000000    0.023321    0.119938    0.000000    0.140000    0.000000
H      0.000000   -0.929946   -0.626342    0.000000   -1.100000   -0.880000
3
* Frequency(3)  4014.0086
H      0.000000    0.683337   -0.429055    0.000000   -1.100000    0.880000
O      0.000000    0.008065    0.119938    0.000000    0.140000    0.000000
H      0.000000   -0.810075   -0.530445    0.000000   -1.100000   -0.880000
3
* Frequency(3)  4014.0086
H      0.000000    0.810075   -0.530445    0.000000   -1.100000    0.880000
O      0.000000   -0.008065    0.119938    0.000000    0.140000    0.000000
H      0.000000   -0.683337   -0.429055    0.000000   -1.100000   -0.880000
3
* Frequency(3)  4014.0086
H      0.000000    0.929946   -0.626342    0.000000   -1.100000    0.880000
O      0.000000   -0.023321    0.119938    0.000000    0.140000    0.000000
H      0.000000   -0.563466   -0.333158    0.000000   -1.100000   -0.880000
3
* Frequency(3)  4014.0086
H      0.000000    1.029960   -0.706353    0.000000   -1.100000    0.880000
O      0.000000   -0.036050    0.119938    0.000000    0.140000    0.000000
H      0.000000   -0.463452   -0.253147    0.000000   -1.100000   -0.880000
3
* Frequency(3)  4014.0086
H      0.000000    1.099279   -0.761808    0.000000   -1.100000    0.880000
O      0.000000   -0.044873    0.119938    0.000000    0.140000    0.000000
H      0.000000   -0.394133   -0.197692    0.000000   -1.100000   -0.880000
3
* Frequency(3)  4014.0086
H      0.000000    1.130391   -0.786698    0.000000   -1.100000    0.880000
O      0.000000   -0.048833    0.119938    0.000000    0.140000    0.000000
H      0.000000   -0.363021   -0.172802    0.000000   -1.100000   -0.880000
3
* Frequency(3)  4014.0086
H      0.000000    1.119925   -0.778325    0.000000   -1.100000    0.880000
O      0.000000   -0.047501    0.119938    0.000000    0.140000    0.000000
H      0.000000   -0.373487   -0.181175    0.000000   -1.100000   -0.880000
3
* Frequency(3)  4014.0086
H      0.000000    1.069015   -0.737597    0.000000   -1.100000    0.880000
O      0.000000   -0.041021    0.119938    0.000000    0.140000    0.000000
H      0.000000   -0.424397   -0.221903    0.000000   -1.100000   -0.880000
3
* Frequency(3)  4014.0086
H      0.000000    0.983178   -0.668928    0.000000   -1.100000    0.880000
O      0.000000   -0.030096    0.119938    0.000000    0.140000    0.000000
H      0.000000   -0.510234   -0.290572    0.000000   -1.100000   -0.880000
3
* Frequency(3)  4014.0086
H      0.000000    0.871715   -0.579757    0.000000   -1.100000    0.880000
O      0.000000   -0.015910    0.119938    0.000000    0.140000    0.000000
H      0.000000   -0.621697   -0.379743    0.000000   -1.100000   -0.880000
3
* Frequency(3)  4014.0086
H      0.000000    0.746706   -0.479750    0.000000   -1.100000    0.880000
O      0.000000   -0.000000    0.119938    0.000000    0.140000    0.000000
H      0.000000   -0.746706   -0.479750    0.000000   -1.100000   -0.880000
