3
* (null), Energy   -76.046263
H      0.000000    0.746706   -0.479750    0.000000    1.160000   -0.800000
O      0.000000    0.000000    0.119938    0.000000    0.000000    0.100000
H      0.000000   -0.746706   -0.479750    0.000000   -1.160000   -0.800000
3
* Frequency(2)  3906.0427
H      0.000000    0.878534   -0.570666    0.000000    1.160000   -0.800000
O      0.000000    0.000000    0.131302    0.000000    0.000000    0.100000
H      0.000000   -0.878534   -0.570666    0.000000   -1.160000   -0.800000
3
* Frequency(2)  3906.0427
H      0.000000    0.996076   -0.651730    0.000000    1.160000   -0.800000
O      0.000000    0.000000    0.141435    0.000000    0.000000    0.100000
H      0.000000   -0.996076   -0.651730    0.000000   -1.160000   -0.800000
3
* Frequency(2)  3906.0427
H      0.000000    1.086596   -0.714157    0.000000    1.160000   -0.800000
O      0.000000    0.000000    0.149239    0.000000    0.000000    0.100000
H      0.000000   -1.086596   -0.714157    0.000000   -1.160000   -0.800000
3
* Frequency(2)  3906.0427
H      0.000000    1.140283   -0.751182    0.000000    1.160000   -0.800000
O      0.000000    0.000000    0.153867    0.000000    0.000000    0.100000
H      0.000000   -1.140283   -0.751182    0.000000   -1.160000   -0.800000
3
* Frequency(2)  3906.0427
H      0.000000    1.151319   -0.758794    0.000000    1.160000   -0.800000
O      0.000000    0.000000    0.154818    0.000000    0.000000    0.100000
H      0.000000   -1.151319   -0.758794    0.000000   -1.160000   -0.800000
3
* Frequency(2)  3906.0427
H      0.000000    1.118510   -0.736167    0.000000    1.160000   -0.800000
O      0.000000    0.000000    0.151990    0.000000    0.000000    0.100000
H      0.000000   -1.118510   -0.736167    0.000000   -1.160000   -0.800000
3
* Frequency(2)  3906.0427
H      0.000000    1.045410   -0.685753    0.000000    1.160000   -0.800000
O      0.000000    0.000000    0.145688    0.000000    0.000000    0.100000
H      0.000000   -1.045410   -0.685753    0.000000   -1.160000   -0.800000
3
* Frequency(2)  3906.0427
H      0.000000    0.939941   -0.613015    0.000000    1.160000   -0.800000
O      0.000000    0.000000    0.136596    0.000000    0.000000    0.100000
H      0.000000   -0.939941   -0.613015    0.000000   -1.160000   -0.800000
3
* Frequency(2)  3906.0427
H      0.000000    0.813531   -0.525836    0.000000    1.160000   -0.800000
O      0.000000    0.000000    0.125699    0.000000    0.000000    0.100000
H      0.000000   -0.813531   -0.525836    0.000000   -1.160000   -0.800000
3
* Frequency(2)  3906.0427
H      0.000000    0.679881   -0.433664    0.000000    1.160000   -0.800000
O      0.000000    0.000000    0.114177    0.000000    0.000000    0.100000
H      0.000000   -0.679881   -0.433664    0.000000   -1.160000   -0.800000
3
* Frequency(2)  3906.0427
H      0.000000    0.553471   -0.346485    0.000000    1.160000   -0.800000
O      0.000000    0.000000    0.103280    0.000000    0.000000    0.100000
H      0.000000   -0.553471   -0.346485    0.000000   -1.160000   -0.800000
3
* Frequency(2)  3906.0427
H      0.000000    0.448002   -0.273747    0.000000    1.160000   -0.800000
O      0.000000    0.000000    0.094188    0.000000    0.000000    0.100000
H      0.000000   -0.448002   -0.273747    0.000000   -1.160000   -0.800000
3
* Frequency(2)  3906.0427
H      0.000000    0.374902   -0.223333    0.000000    1.160000   -0.800000
O      0.000000    0.000000    0.087886    0.000000    0.000000    0.100000
H      0.000000   -0.374902   -0.223333    0.000000   -1.160000   -0.800000
3
* Frequency(2)  3906.0427
H      0.000000    0.342093   -0.200706    0.000000    1.160000   -0.800000
O      0.000000    0.000000    0.085058    0.000000    0.000000    0.100000
H      0.000000   -0.342093   -0.200706    0.000000   -1.160000   -0.800000
3
* Frequency(2)  3906.0427
H      0.000000    0.353129   -0.208318    0.000000    1.160000   -0.800000
O      0.000000    0.000000    0.086009    0.000000    0.000000    0.100000
H      0.000000   -0.353129   -0.208318    0.000000   -1.160000   -0.800000
3
* Frequency(2)  3906.0427
H      0.000000    0.406816   -0.245343    0.000000    1.160000   -0.800000
O      0.000000    0.000000    0.090637    0.000000    0.000000    0.100000
H      0.000000   -0.406816   -0.245343    0.000000   -1.160000   -0.800000
3
* Frequency(2)  3906.0427
H      0.000000    0.497336   -0.307770    0.000000    1.160000   -0.800000
O      0.000000    0.000000    0.098441    0.000000    0.000000    0.100000
H      0.000000   -0.497336   -0.307770    0.000000   -1.160000   -0.800000
3
* Frequency(2)  3906.0427
H      0.000000    0.614878   -0.388834    0.000000    1.160000   -0.800000
O      0.000000    0.000000    0.108574    0.000000    0.000000    0.100000
H      0.000000   -0.614878   -0.388834    0.000000   -1.160000   -0.800000
3
* Frequency(2)  3906.0427
H      0.000000    0.746706   -0.479750    0.000000    1.160000   -0.800000
O      0.000000    0.000000    0.119938    0.000000    0.000000    0.100000
H      0.000000   -0.746706   -0.479750    0.000000   -1.160000   -0.800000
