17
* (null), Energy  -361.535605
C     -0.157185   -0.301891    0.000305    0.000000    0.000000    0.000000
C      0.889924   -1.310837    0.000023    0.000000    0.000000   -0.040000
C      0.252410    1.090537    0.000334    0.000000    0.000000    0.040000
O     -1.362018   -0.667495    0.000546    0.000000    0.000000   -0.020000
C      2.190680   -0.954759   -0.000289    0.000000    0.000000   -0.040000
C      1.556557    1.416607    0.000029    0.000000    0.000000    0.040000
H      0.566485   -2.346452    0.000057    0.000000    0.000000   -0.080000
H     -0.522038    1.851469    0.000701    0.000000    0.000000    0.060000
C      2.546822    0.406467   -0.000307    0.000000    0.000000    0.020000
H      2.971310   -1.708831   -0.000519    0.000000    0.000000   -0.060000
H      1.866965    2.456957    0.000064    0.000000    0.000000    0.080000
H      3.594752    0.688291   -0.000556    0.000000    0.000000    0.020000
H     -2.662502   -0.000943    0.000175    0.000000    0.000000    0.000000
N     -3.754480    0.216566   -0.000420    0.000000    0.000000    0.000000
H     -4.251869   -0.678019   -0.043583    0.000000   -0.040000    1.140000
H     -4.024185    0.779254   -0.811559   -0.140000   -0.960000   -0.620000
H     -4.036668    0.705528    0.853222    0.160000    1.020000   -0.520000
17
* Frequency(1)    27.7448
C     -0.157185   -0.301891    0.000305    0.000000    0.000000    0.000000
C      0.889924   -1.310837   -0.004523    0.000000    0.000000   -0.040000
C      0.252410    1.090537    0.004880    0.000000    0.000000    0.040000
O     -1.362018   -0.667495   -0.001727    0.000000    0.000000   -0.020000
C      2.190680   -0.954759   -0.004835    0.000000    0.000000   -0.040000
C      1.556557    1.416607    0.004575    0.000000    0.000000    0.040000
H      0.566485   -2.346452   -0.009035    0.000000    0.000000   -0.080000
H     -0.522038    1.851469    0.007520    0.000000    0.000000    0.060000
C      2.546822    0.406467    0.001966    0.000000    0.000000    0.020000
H      2.971310   -1.708831   -0.007338    0.000000    0.000000   -0.060000
H      1.866965    2.456957    0.009156    0.000000    0.000000    0.080000
H      3.594752    0.688291    0.001717    0.000000    0.000000    0.020000
H     -2.662502   -0.000943    0.000175    0.000000    0.000000    0.000000
N     -3.754480    0.216566   -0.000420    0.000000    0.000000    0.000000
H     -4.251869   -0.682565    0.085972    0.000000   -0.040000    1.140000
H     -4.040095    0.670155   -0.882019   -0.140000   -0.960000   -0.620000
H     -4.018485    0.821446    0.794127    0.160000    1.020000   -0.520000
17
* Frequency(1)    27.7448
C     -0.157185   -0.301891    0.000305    0.000000    0.000000    0.000000
C      0.889924   -1.310837   -0.008576    0.000000    0.000000   -0.040000
C      0.252410    1.090537    0.008933    0.000000    0.000000    0.040000
O     -1.362018   -0.667495   -0.003753    0.000000    0.000000   -0.020000
C      2.190680   -0.954759   -0.008888    0.000000    0.000000   -0.040000
C      1.556557    1.416607    0.008628    0.000000    0.000000    0.040000
H      0.566485   -2.346452   -0.017141    0.000000    0.000000   -0.080000
H     -0.522038    1.851469    0.013599    0.000000    0.000000    0.060000
C      2.546822    0.406467    0.003992    0.000000    0.000000    0.020000
H      2.971310   -1.708831   -0.013417    0.000000    0.000000   -0.060000
H      1.866965    2.456957    0.017262    0.000000    0.000000    0.080000
H      3.594752    0.688291    0.003743    0.000000    0.000000    0.020000
H     -2.662502   -0.000943    0.000175    0.000000    0.000000    0.000000
N     -3.754480    0.216566   -0.000420    0.000000    0.000000    0.000000
H     -4.251869   -0.686618    0.201488    0.000000   -0.040000    1.140000
H     -4.054281    0.572879   -0.944843   -0.140000   -0.960000   -0.620000
H     -4.002272    0.924802    0.741435    0.160000    1.020000   -0.520000
17
* Frequency(1)    27.7448
C     -0.157185   -0.301891    0.000305    0.000000    0.000000    0.000000
C      0.889924   -1.310837   -0.011697    0.000000    0.000000   -0.040000
C      0.252410    1.090537    0.012054    0.000000    0.000000    0.040000
O     -1.362018   -0.667495   -0.005314    0.000000    0.000000   -0.020000
C      2.190680   -0.954759   -0.012009    0.000000    0.000000   -0.040000
C      1.556557    1.416607    0.011749    0.000000    0.000000    0.040000
H      0.566485   -2.346452   -0.023384    0.000000    0.000000   -0.080000
H     -0.522038    1.851469    0.018281    0.000000    0.000000    0.060000
C      2.546822    0.406467    0.005553    0.000000    0.000000    0.020000
H      2.971310   -1.708831   -0.018099    0.000000    0.000000   -0.060000
H      1.866965    2.456957    0.023505    0.000000    0.000000    0.080000
H      3.594752    0.688291    0.005304    0.000000    0.000000    0.020000
H     -2.662502   -0.000943    0.000175    0.000000    0.000000    0.000000
N     -3.754480    0.216566   -0.000420    0.000000    0.000000    0.000000
H     -4.251869   -0.689739    0.290446    0.000000   -0.040000    1.140000
H     -4.065206    0.497966   -0.993224   -0.140000   -0.960000   -0.620000
H     -3.989787    1.004396    0.700858    0.160000    1.020000   -0.520000
17
* Frequency(1)    27.7448
C     -0.157185   -0.301891    0.000305    0.000000    0.000000    0.000000
C      0.889924   -1.310837   -0.013549    0.000000    0.000000   -0.040000
C      0.252410    1.090537    0.013906    0.000000    0.000000    0.040000
O     -1.362018   -0.667495   -0.006240    0.000000    0.000000   -0.020000
C      2.190680   -0.954759   -0.013861    0.000000    0.000000   -0.040000
C      1.556557    1.416607    0.013601    0.000000    0.000000    0.040000
H      0.566485   -2.346452   -0.027086    0.000000    0.000000   -0.080000
H     -0.522038    1.851469    0.021058    0.000000    0.000000    0.060000
C      2.546822    0.406467    0.006479    0.000000    0.000000    0.020000
H      2.971310   -1.708831   -0.020876    0.000000    0.000000   -0.060000
H      1.866965    2.456957    0.027207    0.000000    0.000000    0.080000
H      3.594752    0.688291    0.006230    0.000000    0.000000    0.020000
H     -2.662502   -0.000943    0.000175    0.000000    0.000000    0.000000
N     -3.754480    0.216566   -0.000420    0.000000    0.000000    0.000000
H     -4.251869   -0.691591    0.343208    0.000000   -0.040000    1.140000
H     -4.071686    0.453536   -1.021919   -0.140000   -0.960000   -0.620000
H     -3.982382    1.051604    0.676791    0.160000    1.020000   -0.520000
17
* Frequency(1)    27.7448
C     -0.157185   -0.301891    0.000305    0.000000    0.000000    0.000000
C      0.889924   -1.310837   -0.013929    0.000000    0.000000   -0.040000
C      0.252410    1.090537    0.014286    0.000000    0.000000    0.040000
O     -1.362018   -0.667495   -0.006430    0.000000    0.000000   -0.020000
C      2.190680   -0.954759   -0.014241    0.000000    0.000000   -0.040000
C      1.556557    1.416607    0.013981    0.000000    0.000000    0.040000
H      0.566485   -2.346452   -0.027847    0.000000    0.000000   -0.080000
H     -0.522038    1.851469    0.021629    0.000000    0.000000    0.060000
C      2.546822    0.406467    0.006669    0.000000    0.000000    0.020000
H      2.971310   -1.708831   -0.021447    0.000000    0.000000   -0.060000
H      1.866965    2.456957    0.027968    0.000000    0.000000    0.080000
H      3.594752    0.688291    0.006420    0.000000    0.000000    0.020000
H     -2.662502   -0.000943    0.000175    0.000000    0.000000    0.000000
N     -3.754480    0.216566   -0.000420    0.000000    0.000000    0.000000
H     -4.251869   -0.691971    0.354054    0.000000   -0.040000    1.140000
H     -4.073018    0.444402   -1.027818   -0.140000   -0.960000   -0.620000
H     -3.980859    1.061309    0.671844    0.160000    1.020000   -0.520000
17
* Frequency(1)    27.7448
C     -0.157185   -0.301891    0.000305    0.000000    0.000000    0.000000
C      0.889924   -1.310837   -0.012798    0.000000    0.000000   -0.040000
C      0.252410    1.090537    0.013155    0.000000    0.000000    0.040000
O     -1.362018   -0.667495   -0.005864    0.000000    0.000000   -0.020000
C      2.190680   -0.954759   -0.013110    0.000000    0.000000   -0.040000
C      1.556557    1.416607    0.012850    0.000000    0.000000    0.040000
H      0.566485   -2.346452   -0.025585    0.000000    0.000000   -0.080000
H     -0.522038    1.851469    0.019932    0.000000    0.000000    0.060000
C      2.546822    0.406467    0.006103    0.000000    0.000000    0.020000
H      2.971310   -1.708831   -0.019750    0.000000    0.000000   -0.060000
H      1.866965    2.456957    0.025706    0.000000    0.000000    0.080000
H      3.594752    0.688291    0.005854    0.000000    0.000000    0.020000
H     -2.662502   -0.000943    0.000175    0.000000    0.000000    0.000000
N     -3.754480    0.216566   -0.000420    0.000000    0.000000    0.000000
H     -4.251869   -0.690840    0.321811    0.000000   -0.040000    1.140000
H     -4.069058    0.471554   -1.010282   -0.140000   -0.960000   -0.620000
H     -3.985385    1.032459    0.686551    0.160000    1.020000   -0.520000
17
* Frequency(1)    27.7448
C     -0.157185   -0.301891    0.000305    0.000000    0.000000    0.000000
C      0.889924   -1.310837   -0.010277    0.000000    0.000000   -0.040000
C      0.252410    1.090537    0.010634    0.000000    0.000000    0.040000
O     -1.362018   -0.667495   -0.004604    0.000000    0.000000   -0.020000
C      2.190680   -0.954759   -0.010589    0.000000    0.000000   -0.040000
C      1.556557    1.416607    0.010329    0.000000    0.000000    0.040000
H      0.566485   -2.346452   -0.020543    0.000000    0.000000   -0.080000
H     -0.522038    1.851469    0.016151    0.000000    0.000000    0.060000
C      2.546822    0.406467    0.004843    0.000000    0.000000    0.020000
H      2.971310   -1.708831   -0.015969    0.000000    0.000000   -0.060000
H      1.866965    2.456957    0.020664    0.000000    0.000000    0.080000
H      3.594752    0.688291    0.004594    0.000000    0.000000    0.020000
H     -2.662502   -0.000943    0.000175    0.000000    0.000000    0.000000
N     -3.754480    0.216566   -0.000420    0.000000    0.000000    0.000000
H     -4.251869   -0.688319    0.249971    0.000000   -0.040000    1.140000
H     -4.060235    0.532051   -0.971211   -0.140000   -0.960000   -0.620000
H     -3.995467    0.968181    0.719320    0.160000    1.020000   -0.520000
17
* Frequency(1)    27.7448
C     -0.157185   -0.301891    0.000305    0.000000    0.000000    0.000000
C      0.889924   -1.310837   -0.006640    0.000000    0.000000   -0.040000
C      0.252410    1.090537    0.006997    0.000000    0.000000    0.040000
O     -1.362018   -0.667495   -0.002786    0.000000    0.000000   -0.020000
C      2.190680   -0.954759   -0.006952    0.000000    0.000000   -0.040000
C      1.556557    1.416607    0.006692    0.000000    0.000000    0.040000
H      0.566485   -2.346452   -0.013270    0.000000    0.000000   -0.080000
H     -0.522038    1.851469    0.010696    0.000000    0.000000    0.060000
C      2.546822    0.406467    0.003025    0.000000    0.000000    0.020000
H      2.971310   -1.708831   -0.010514    0.000000    0.000000   -0.060000
H      1.866965    2.456957    0.013391    0.000000    0.000000    0.080000
H      3.594752    0.688291    0.002776    0.000000    0.000000    0.020000
H     -2.662502   -0.000943    0.000175    0.000000    0.000000    0.000000
N     -3.754480    0.216566   -0.000420    0.000000    0.000000    0.000000
H     -4.251869   -0.684682    0.146320    0.000000   -0.040000    1.140000
H     -4.047506    0.619336   -0.914840   -0.140000   -0.960000   -0.620000
H     -4.010015    0.875441    0.766600    0.160000    1.020000   -0.520000
17
* Frequency(1)    27.7448
C     -0.157185   -0.301891    0.000305    0.000000    0.000000    0.000000
C      0.889924   -1.310837   -0.002281    0.000000    0.000000   -0.040000
C      0.252410    1.090537    0.002638    0.000000    0.000000    0.040000
O     -1.362018   -0.667495   -0.000606    0.000000    0.000000   -0.020000
C      2.190680   -0.954759   -0.002593    0.000000    0.000000   -0.040000
C      1.556557    1.416607    0.002333    0.000000    0.000000    0.040000
H      0.566485   -2.346452   -0.004552    0.000000    0.000000   -0.080000
H     -0.522038    1.851469    0.004157    0.000000    0.000000    0.060000
C      2.546822    0.406467    0.000845    0.000000    0.000000    0.020000
H      2.971310   -1.708831   -0.003975    0.000000    0.000000   -0.060000
H      1.866965    2.456957    0.004673    0.000000    0.000000    0.080000
H      3.594752    0.688291    0.000596    0.000000    0.000000    0.020000
H     -2.662502   -0.000943    0.000175    0.000000    0.000000    0.000000
N     -3.754480    0.216566   -0.000420    0.000000    0.000000    0.000000
H     -4.251869   -0.680323    0.022090    0.000000   -0.040000    1.140000
H     -4.032250    0.723950   -0.847276   -0.140000   -0.960000   -0.620000
H     -4.027451    0.764288    0.823266    0.160000    1.020000   -0.520000
17
* Frequency(1)    27.7448
C     -0.157185   -0.301891    0.000305    0.000000    0.000000    0.000000
C      0.889924   -1.310837    0.002327    0.000000    0.000000   -0.040000
C      0.252410    1.090537   -0.001970    0.000000    0.000000    0.040000
O     -1.362018   -0.667495    0.001698    0.000000    0.000000   -0.020000
C      2.190680   -0.954759    0.002015    0.000000    0.000000   -0.040000
C      1.556557    1.416607   -0.002275    0.000000    0.000000    0.040000
H      0.566485   -2.346452    0.004666    0.000000    0.000000   -0.080000
H     -0.522038    1.851469   -0.002755    0.000000    0.000000    0.060000
C      2.546822    0.406467   -0.001459    0.000000    0.000000    0.020000
H      2.971310   -1.708831    0.002937    0.000000    0.000000   -0.060000
H      1.866965    2.456957   -0.004545    0.000000    0.000000    0.080000
H      3.594752    0.688291   -0.001708    0.000000    0.000000    0.020000
H     -2.662502   -0.000943    0.000175    0.000000    0.000000    0.000000
N     -3.754480    0.216566   -0.000420    0.000000    0.000000    0.000000
H     -4.251869   -0.675715   -0.109256    0.000000   -0.040000    1.140000
H     -4.016120    0.834558   -0.775842   -0.140000   -0.960000   -0.620000
H     -4.045885    0.646768    0.883178    0.160000    1.020000   -0.520000
17
* Frequency(1)    27.7448
C     -0.157185   -0.301891    0.000305    0.000000    0.000000    0.000000
C      0.889924   -1.310837    0.006686    0.000000    0.000000   -0.040000
C      0.252410    1.090537   -0.006329    0.000000    0.000000    0.040000
O     -1.362018   -0.667495    0.003878    0.000000    0.000000   -0.020000
C      2.190680   -0.954759    0.006374    0.000000    0.000000   -0.040000
C      1.556557    1.416607   -0.006634    0.000000    0.000000    0.040000
H      0.566485   -2.346452    0.013384    0.000000    0.000000   -0.080000
H     -0.522038    1.851469   -0.009294    0.000000    0.000000    0.060000
C      2.546822    0.406467   -0.003639    0.000000    0.000000    0.020000
H      2.971310   -1.708831    0.009476    0.000000    0.000000   -0.060000
H      1.866965    2.456957   -0.013263    0.000000    0.000000    0.080000
H      3.594752    0.688291   -0.003888    0.000000    0.000000    0.020000
H     -2.662502   -0.000943    0.000175    0.000000    0.000000    0.000000
N     -3.754480    0.216566   -0.000420    0.000000    0.000000    0.000000
H     -4.251869   -0.671356   -0.233486    0.000000   -0.040000    1.140000
H     -4.000864    0.939172   -0.708278   -0.140000   -0.960000   -0.620000
H     -4.063321    0.535615    0.939844    0.160000    1.020000   -0.520000
17
* Frequency(1)    27.7448
C     -0.157185   -0.301891    0.000305    0.000000    0.000000    0.000000
C      0.889924   -1.310837    0.010323    0.000000    0.000000   -0.040000
C      0.252410    1.090537   -0.009966    0.000000    0.000000    0.040000
O     -1.362018   -0.667495    0.005696    0.000000    0.000000   -0.020000
C      2.190680   -0.954759    0.010011    0.000000    0.000000   -0.040000
C      1.556557    1.416607   -0.010271    0.000000    0.000000    0.040000
H      0.566485   -2.346452    0.020657    0.000000    0.000000   -0.080000
H     -0.522038    1.851469   -0.014749    0.000000    0.000000    0.060000
C      2.546822    0.406467   -0.005457    0.000000    0.000000    0.020000
H      2.971310   -1.708831    0.014931    0.000000    0.000000   -0.060000
H      1.866965    2.456957   -0.020536    0.000000    0.000000    0.080000
H      3.594752    0.688291   -0.005706    0.000000    0.000000    0.020000
H     -2.662502   -0.000943    0.000175    0.000000    0.000000    0.000000
N     -3.754480    0.216566   -0.000420    0.000000    0.000000    0.000000
H     -4.251869   -0.667719   -0.337137    0.000000   -0.040000    1.140000
H     -3.988135    1.026457   -0.651907   -0.140000   -0.960000   -0.620000
H     -4.077869    0.442875    0.987124    0.160000    1.020000   -0.520000
17
* Frequency(1)    27.7448
C     -0.157185   -0.301891    0.000305    0.000000    0.000000    0.000000
C      0.889924   -1.310837    0.012844    0.000000    0.000000   -0.040000
C      0.252410    1.090537   -0.012487    0.000000    0.000000    0.040000
O     -1.362018   -0.667495    0.006956    0.000000    0.000000   -0.020000
C      2.190680   -0.954759    0.012532    0.000000    0.000000   -0.040000
C      1.556557    1.416607   -0.012792    0.000000    0.000000    0.040000
H      0.566485   -2.346452    0.025699    0.000000    0.000000   -0.080000
H     -0.522038    1.851469   -0.018530    0.000000    0.000000    0.060000
C      2.546822    0.406467   -0.006717    0.000000    0.000000    0.020000
H      2.971310   -1.708831    0.018712    0.000000    0.000000   -0.060000
H      1.866965    2.456957   -0.025578    0.000000    0.000000    0.080000
H      3.594752    0.688291   -0.006966    0.000000    0.000000    0.020000
H     -2.662502   -0.000943    0.000175    0.000000    0.000000    0.000000
N     -3.754480    0.216566   -0.000420    0.000000    0.000000    0.000000
H     -4.251869   -0.665198   -0.408977    0.000000   -0.040000    1.140000
H     -3.979312    1.086954   -0.612836   -0.140000   -0.960000   -0.620000
H     -4.087951    0.378597    1.019893    0.160000    1.020000   -0.520000
17
* Frequency(1)    27.7448
C     -0.157185   -0.301891    0.000305    0.000000    0.000000    0.000000
C      0.889924   -1.310837    0.013975    0.000000    0.000000   -0.040000
C      0.252410    1.090537   -0.013618    0.000000    0.000000    0.040000
O     -1.362018   -0.667495    0.007522    0.000000    0.000000   -0.020000
C      2.190680   -0.954759    0.013663    0.000000    0.000000   -0.040000
C      1.556557    1.416607   -0.013923    0.000000    0.000000    0.040000
H      0.566485   -2.346452    0.027961    0.000000    0.000000   -0.080000
H     -0.522038    1.851469   -0.020227    0.000000    0.000000    0.060000
C      2.546822    0.406467   -0.007283    0.000000    0.000000    0.020000
H      2.971310   -1.708831    0.020409    0.000000    0.000000   -0.060000
H      1.866965    2.456957   -0.027840    0.000000    0.000000    0.080000
H      3.594752    0.688291   -0.007532    0.000000    0.000000    0.020000
H     -2.662502   -0.000943    0.000175    0.000000    0.000000    0.000000
N     -3.754480    0.216566   -0.000420    0.000000    0.000000    0.000000
H     -4.251869   -0.664067   -0.441220    0.000000   -0.040000    1.140000
H     -3.975352    1.114106   -0.595300   -0.140000   -0.960000   -0.620000
H     -4.092477    0.349747    1.034600    0.160000    1.020000   -0.520000
17
* Frequency(1)    27.7448
C     -0.157185   -0.301891    0.000305    0.000000    0.000000    0.000000
C      0.889924   -1.310837    0.013595    0.000000    0.000000   -0.040000
C      0.252410    1.090537   -0.013238    0.000000    0.000000    0.040000
O     -1.362018   -0.667495    0.007332    0.000000    0.000000   -0.020000
C      2.190680   -0.954759    0.013283    0.000000    0.000000   -0.040000
C      1.556557    1.416607   -0.013543    0.000000    0.000000    0.040000
H      0.566485   -2.346452    0.027200    0.000000    0.000000   -0.080000
H     -0.522038    1.851469   -0.019656    0.000000    0.000000    0.060000
C      2.546822    0.406467   -0.007093    0.000000    0.000000    0.020000
H      2.971310   -1.708831    0.019838    0.000000    0.000000   -0.060000
H      1.866965    2.456957   -0.027079    0.000000    0.000000    0.080000
H      3.594752    0.688291   -0.007342    0.000000    0.000000    0.020000
H     -2.662502   -0.000943    0.000175    0.000000    0.000000    0.000000
N     -3.754480    0.216566   -0.000420    0.000000    0.000000    0.000000
H     -4.251869   -0.664447   -0.430374    0.000000   -0.040000    1.140000
H     -3.976684    1.104972   -0.601199   -0.140000   -0.960000   -0.620000
H     -4.090954    0.359452    1.029653    0.160000    1.020000   -0.520000
17
* Frequency(1)    27.7448
C     -0.157185   -0.301891    0.000305    0.000000    0.000000    0.000000
C      0.889924   -1.310837    0.011743    0.000000    0.000000   -0.040000
C      0.252410    1.090537   -0.011386    0.000000    0.000000    0.040000
O     -1.362018   -0.667495    0.006406    0.000000    0.000000   -0.020000
C      2.190680   -0.954759    0.011431    0.000000    0.000000   -0.040000
C      1.556557    1.416607   -0.011691    0.000000    0.000000    0.040000
H      0.566485   -2.346452    0.023498    0.000000    0.000000   -0.080000
H     -0.522038    1.851469   -0.016879    0.000000    0.000000    0.060000
C      2.546822    0.406467   -0.006167    0.000000    0.000000    0.020000
H      2.971310   -1.708831    0.017061    0.000000    0.000000   -0.060000
H      1.866965    2.456957   -0.023377    0.000000    0.000000    0.080000
H      3.594752    0.688291   -0.006416    0.000000    0.000000    0.020000
H     -2.662502   -0.000943    0.000175    0.000000    0.000000    0.000000
N     -3.754480    0.216566   -0.000420    0.000000    0.000000    0.000000
H     -4.251869   -0.666299   -0.377612    0.000000   -0.040000    1.140000
H     -3.983164    1.060542   -0.629894   -0.140000   -0.960000   -0.620000
H     -4.083549    0.406660    1.005586    0.160000    1.020000   -0.520000
17
* Frequency(1)    27.7448
C     -0.157185   -0.301891    0.000305    0.000000    0.000000    0.000000
C      0.889924   -1.310837    0.008622    0.000000    0.000000   -0.040000
C      0.252410    1.090537   -0.008265    0.000000    0.000000    0.040000
O     -1.362018   -0.667495    0.004845    0.000000    0.000000   -0.020000
C      2.190680   -0.954759    0.008310    0.000000    0.000000   -0.040000
C      1.556557    1.416607   -0.008570    0.000000    0.000000    0.040000
H      0.566485   -2.346452    0.017255    0.000000    0.000000   -0.080000
H     -0.522038    1.851469   -0.012197    0.000000    0.000000    0.060000
C      2.546822    0.406467   -0.004606    0.000000    0.000000    0.020000
H      2.971310   -1.708831    0.012379    0.000000    0.000000   -0.060000
H      1.866965    2.456957   -0.017134    0.000000    0.000000    0.080000
H      3.594752    0.688291   -0.004855    0.000000    0.000000    0.020000
H     -2.662502   -0.000943    0.000175    0.000000    0.000000    0.000000
N     -3.754480    0.216566   -0.000420    0.000000    0.000000    0.000000
H     -4.251869   -0.669420   -0.288654    0.000000   -0.040000    1.140000
H     -3.994089    0.985629   -0.678275   -0.140000   -0.960000   -0.620000
H     -4.071064    0.486254    0.965009    0.160000    1.020000   -0.520000
17
* Frequency(1)    27.7448
C     -0.157185   -0.301891    0.000305    0.000000    0.000000    0.000000
C      0.889924   -1.310837    0.004569    0.000000    0.000000   -0.040000
C      0.252410    1.090537   -0.004212    0.000000    0.000000    0.040000
O     -1.362018   -0.667495    0.002819    0.000000    0.000000   -0.020000
C      2.190680   -0.954759    0.004257    0.000000    0.000000   -0.040000
C      1.556557    1.416607   -0.004517    0.000000    0.000000    0.040000
H      0.566485   -2.346452    0.009149    0.000000    0.000000   -0.080000
H     -0.522038    1.851469   -0.006118    0.000000    0.000000    0.060000
C      2.546822    0.406467   -0.002580    0.000000    0.000000    0.020000
H      2.971310   -1.708831    0.006300    0.000000    0.000000   -0.060000
H      1.866965    2.456957   -0.009028    0.000000    0.000000    0.080000
H      3.594752    0.688291   -0.002829    0.000000    0.000000    0.020000
H     -2.662502   -0.000943    0.000175    0.000000    0.000000    0.000000
N     -3.754480    0.216566   -0.000420    0.000000    0.000000    0.000000
H     -4.251869   -0.673473   -0.173138    0.000000   -0.040000    1.140000
H     -4.008275    0.888353   -0.741099   -0.140000   -0.960000   -0.620000
H     -4.054851    0.589610    0.912317    0.160000    1.020000   -0.520000
17
* Frequency(1)    27.7448
C     -0.157185   -0.301891    0.000305    0.000000    0.000000    0.000000
C      0.889924   -1.310837    0.000023    0.000000    0.000000   -0.040000
C      0.252410    1.090537    0.000334    0.000000    0.000000    0.040000
O     -1.362018   -0.667495    0.000546    0.000000    0.000000   -0.020000
C      2.190680   -0.954759   -0.000289    0.000000    0.000000   -0.040000
C      1.556557    1.416607    0.000029    0.000000    0.000000    0.040000
H      0.566485   -2.346452    0.000057    0.000000    0.000000   -0.080000
H     -0.522038    1.851469    0.000701    0.000000    0.000000    0.060000
C      2.546822    0.406467   -0.000307    0.000000    0.000000    0.020000
H      2.971310   -1.708831   -0.000519    0.000000    0.000000   -0.060000
H      1.866965    2.456957    0.000064    0.000000    0.000000    0.080000
H      3.594752    0.688291   -0.000556    0.000000    0.000000    0.020000
H     -2.662502   -0.000943    0.000175    0.000000    0.000000    0.000000
N     -3.754480    0.216566   -0.000420    0.000000    0.000000    0.000000
H     -4.251869   -0.678019   -0.043583    0.000000   -0.040000    1.140000
H     -4.024185    0.779254   -0.811559   -0.140000   -0.960000   -0.620000
H     -4.036668    0.705528    0.853222    0.160000    1.020000   -0.520000
