3
* (null), Energy   -76.046263
H      0.000000    0.746706   -0.479750    0.000000    0.880000    1.100000
O      0.000000    0.000000    0.119938    0.000000    0.000000   -0.140000
H      0.000000   -0.746706   -0.479750    0.000000   -0.880000    1.100000
3
* Frequency(1)  1666.9839
H      0.000000    0.846713   -0.354741    0.000000    0.880000    1.100000
O      0.000000    0.000000    0.104028    0.000000    0.000000   -0.140000
H      0.000000   -0.846713   -0.354741    0.000000   -0.880000    1.100000
3
* Frequency(1)  1666.9839
H      0.000000    0.935884   -0.243278    0.000000    0.880000    1.100000
O      0.000000    0.000000    0.089842    0.000000    0.000000   -0.140000
H      0.000000   -0.935884   -0.243278    0.000000   -0.880000    1.100000
3
* Frequency(1)  1666.9839
H      0.000000    1.004553   -0.157441    0.000000    0.880000    1.100000
O      0.000000    0.000000    0.078917    0.000000    0.000000   -0.140000
H      0.000000   -1.004553   -0.157441    0.000000   -0.880000    1.100000
3
* Frequency(1)  1666.9839
H      0.000000    1.045281   -0.106531    0.000000    0.880000    1.100000
O      0.000000    0.000000    0.072437    0.000000    0.000000   -0.140000
H      0.000000   -1.045281   -0.106531    0.000000   -0.880000    1.100000
3
* Frequency(1)  1666.9839
H      0.000000    1.053654   -0.096065    0.000000    0.880000    1.100000
O      0.000000    0.000000    0.071105    0.000000    0.000000   -0.140000
H      0.000000   -1.053654   -0.096065    0.000000   -0.880000    1.100000
3
* Frequency(1)  1666.9839
H      0.000000    1.028764   -0.127177    0.000000    0.880000    1.100000
O      0.000000    0.000000    0.075065    0.000000    0.000000   -0.140000
H      0.000000   -1.028764   -0.127177    0.000000   -0.880000    1.100000
3
* Frequency(1)  1666.9839
H      0.000000    0.973309   -0.196496    0.000000    0.880000    1.100000
O      0.000000    0.000000    0.083888    0.000000    0.000000   -0.140000
H      0.000000   -0.973309   -0.196496    0.000000   -0.880000    1.100000
3
* Frequency(1)  1666.9839
H      0.000000    0.893298   -0.296510    0.000000    0.880000    1.100000
O      0.000000    0.000000    0.096617    0.000000    0.000000   -0.140000
H      0.000000   -0.893298   -0.296510    0.000000   -0.880000    1.100000
3
* Frequency(1)  1666.9839
H      0.000000    0.797401   -0.416381    0.000000    0.880000    1.100000
O      0.000000    0.000000    0.111873    0.000000    0.000000   -0.140000
H      0.000000   -0.797401   -0.416381    0.000000   -0.880000    1.100000
3
* Frequency(1)  1666.9839
H      0.000000    0.696011   -0.543119    0.000000    0.880000    1.100000
O      0.000000    0.000000    0.128003    0.000000    0.000000   -0.140000
H      0.000000   -0.696011   -0.543119    0.000000   -0.880000    1.100000
3
* Frequency(1)  1666.9839
H      0.000000    0.600114   -0.662990    0.000000    0.880000    1.100000
O      0.000000    0.000000    0.143259    0.000000    0.000000   -0.140000
H      0.000000   -0.600114   -0.662990    0.000000   -0.880000    1.100000
3
* Frequency(1)  1666.9839
H      0.000000    0.520103   -0.763004    0.000000    0.880000    1.100000
O      0.000000    0.000000    0.155988    0.000000    0.000000   -0.140000
H      0.000000   -0.520103   -0.763004    0.000000   -0.880000    1.100000
3
* Frequency(1)  1666.9839
H      0.000000    0.464648   -0.832323    0.000000    0.880000    1.100000
O      0.000000    0.000000    0.164811    0.000000    0.000000   -0.140000
H      0.000000   -0.464648   -0.832323    0.000000   -0.880000    1.100000
3
* Frequency(1)  1666.9839
H      0.000000    0.439758   -0.863435    0.000000    0.880000    1.100000
O      0.000000    0.000000    0.168771    0.000000    0.000000   -0.140000
H      0.000000   -0.439758   -0.863435    0.000000   -0.880000    1.100000
3
* Frequency(1)  1666.9839
H      0.000000    0.448131   -0.852969    0.000000    0.880000    1.100000
O      0.000000    0.000000    0.167439    0.000000    0.000000   -0.140000
H      0.000000   -0.448131   -0.852969    0.000000   -0.880000    1.100000
3
* Frequency(1)  1666.9839
H      0.000000    0.488859   -0.802059    0.000000    0.880000    1.100000
O      0.000000    0.000000    0.160959    0.000000    0.000000   -0.140000
H      0.000000   -0.488859   -0.802059    0.000000   -0.880000    1.100000
3
* Frequency(1)  1666.9839
H      0.000000    0.557528   -0.716222    0.000000    0.880000    1.100000
O      0.000000    0.000000    0.150034    0.000000    0.000000   -0.140000
H      0.000000   -0.557528   -0.716222    0.000000   -0.880000    1.100000
3
* Frequency(1)  1666.9839
H      0.000000    0.646699   -0.604759    0.000000    0.880000    1.100000
O      0.000000    0.000000    0.135848    0.000000    0.000000   -0.140000
H      0.000000   -0.646699   -0.604759    0.000000   -0.880000    1.100000
3
* Frequency(1)  1666.9839
H      0.000000    0.746706   -0.479750    0.000000    0.880000    1.100000
O      0.000000    0.000000    0.119938    0.000000    0.000000   -0.140000
H      0.000000   -0.746706   -0.479750    0.000000   -0.880000    1.100000
